# Force coefficients
# liftDir       : (0.00000000e+00 1.00000000e+00 0.00000000e+00)
# dragDir       : (1.00000000e+00 0.00000000e+00 0.00000000e+00)
# pitchAxis     : (0.00000000e+00 0.00000000e+00 1.00000000e+00)
# magUInf       : 1.00000000e+00
# lRef          : 1.00000000e+00
# Aref          : 1.00000000e+00
# CofR          : (0.00000000e+00 0.00000000e+00 0.00000000e+00)
# Time          	Cm              	Cd              	Cl              	Cl(f)           	Cl(r)           
0               	-1.15884467e-05	3.68083594e-03	-6.00051261e-06	-1.45887030e-05	8.58819042e-06
6e-08           	3.45462461e-04	2.60637811e+07	4.31930591e+03	2.15965330e+03	2.15965261e+03
1.32e-07        	-5.19165355e-05	-1.40388769e+07	-9.89990391e+03	-4.94995201e+03	-4.94995190e+03
2.184e-07       	-3.94454282e-06	-2.85292294e+04	-7.56796361e+02	-3.78398184e+02	-3.78398177e+02
3.2207999e-07   	-4.64210163e-05	6.53065122e+02	-1.46415817e+02	-7.32079551e+01	-7.32078623e+01
4.4649599e-07   	-3.96635852e-05	4.11072274e+03	-5.87498853e+01	-2.93749823e+01	-2.93749030e+01
5.9579518e-07   	-3.46394250e-05	3.02081153e+03	-1.60901888e+02	-8.04509788e+01	-8.04509095e+01
7.7495421e-07   	-3.32707577e-05	1.74773024e+03	-4.26616096e+01	-2.13308381e+01	-2.13307715e+01
9.8994505e-07   	-3.44623302e-05	1.10725065e+03	-2.32673599e+01	-1.16337144e+01	-1.16336455e+01
1.247934e-06    	-3.66720607e-05	8.17609723e+02	-7.95911922e+00	-3.97959628e+00	-3.97952294e+00
1.5575208e-06   	-3.75952752e-05	6.55903374e+02	-1.85071448e+01	-9.25361000e+00	-9.25353481e+00
1.929025e-06    	-3.81306683e-05	5.31663702e+02	-3.13675745e+01	-1.56838254e+01	-1.56837491e+01
2.3748299e-06   	-3.90295637e-05	4.18246827e+02	-1.98042941e+01	-9.90218606e+00	-9.90210801e+00
2.9097959e-06   	-3.98687740e-05	3.18628415e+02	-1.83657870e+01	-9.18293337e+00	-9.18285363e+00
3.5517549e-06   	-4.06169254e-05	2.37830179e+02	-1.69591364e+01	-8.47960884e+00	-8.47952760e+00
4.3221057e-06   	-4.13133361e-05	1.75313430e+02	-1.48870149e+01	-7.44354876e+00	-7.44346614e+00
5.2465266e-06   	-4.20139773e-05	1.29401324e+02	-1.29526345e+01	-6.47635929e+00	-6.47627526e+00
6.3558316e-06   	-4.26913396e-05	9.62838337e+01	-1.09717149e+01	-5.48590016e+00	-5.48581478e+00
7.6869975e-06   	-4.33365882e-05	7.24726532e+01	-9.08377331e+00	-4.54192999e+00	-4.54184332e+00
9.2843963e-06   	-4.39505157e-05	5.52347465e+01	-7.46993889e+00	-3.73501340e+00	-3.73492549e+00
1.1201274e-05   	-4.45303936e-05	4.26760690e+01	-5.94651514e+00	-2.97330210e+00	-2.97321304e+00
1.3501527e-05   	-4.50857790e-05	3.35285732e+01	-4.95700129e+00	-2.47854573e+00	-2.47845556e+00
1.6261831e-05   	-4.55735360e-05	2.60068420e+01	-4.05573812e+00	-2.02791463e+00	-2.02782349e+00
1.9574195e-05   	-4.60682998e-05	2.07324372e+01	-3.20163640e+00	-1.60086427e+00	-1.60077213e+00
2.354903e-05    	-4.65521920e-05	1.66152815e+01	-2.53458960e+00	-1.26734135e+00	-1.26724825e+00
2.831883e-05    	-4.70052344e-05	1.33635890e+01	-2.01129479e+00	-1.00569440e+00	-1.00560039e+00
3.4042588e-05   	-4.74325614e-05	1.08610648e+01	-1.60002415e+00	-8.00059508e-01	-7.99964643e-01
4.0911098e-05   	-4.78416098e-05	8.89528358e+00	-1.26905957e+00	-6.34577627e-01	-6.34481944e-01
4.91533e-05     	-4.82331125e-05	7.32059875e+00	-1.00984171e+00	-5.04969088e-01	-5.04872622e-01
5.904393e-05    	-4.86099733e-05	6.07988994e+00	-8.03396821e-01	-4.01747020e-01	-4.01649800e-01
7.0912663e-05   	-4.89759864e-05	5.12199715e+00	-6.37479820e-01	-3.18788886e-01	-3.18690934e-01
8.5155122e-05   	-4.93281398e-05	4.31112571e+00	-5.01450100e-01	-2.50774378e-01	-2.50675722e-01
0.00010224604   	-4.96726227e-05	3.69368594e+00	-3.94468025e-01	-1.97283685e-01	-1.97184340e-01
0.00012275508   	-5.00090574e-05	3.19833036e+00	-3.03705677e-01	-1.51902847e-01	-1.51802829e-01
0.00014736586   	-5.03417256e-05	2.80114204e+00	-2.40610720e-01	-1.20355702e-01	-1.20255018e-01
0.00017689871   	-5.06735713e-05	2.48296473e+00	-1.91832568e-01	-9.59669577e-02	-9.58656106e-02
0.00021233809   	-5.10075465e-05	2.22776543e+00	-1.48071999e-01	-7.40870069e-02	-7.39849918e-02
0.00025486523   	-5.13467927e-05	2.01600695e+00	-1.13534950e-01	-5.68188218e-02	-5.67161283e-02
0.00030589761   	-5.16998989e-05	1.84355296e+00	-8.94346904e-02	-4.47690451e-02	-4.46656453e-02
0.0003671361    	-5.20653773e-05	1.69644666e+00	-6.74684592e-02	-3.37862950e-02	-3.36821642e-02
0.00044062229   	-5.24454771e-05	1.58155169e+00	-5.53645844e-02	-2.77347377e-02	-2.76298467e-02
0.00052880572   	-5.28404792e-05	1.47840960e+00	-4.44121064e-02	-2.22588937e-02	-2.21532127e-02
0.00063462583   	-5.32576587e-05	1.38625925e+00	-3.64304749e-02	-1.82684951e-02	-1.81619798e-02
0.00076160997   	-5.37224027e-05	1.30112277e+00	-3.10282345e-02	-1.55678397e-02	-1.54603949e-02
0.00091398861   	-5.42315582e-05	1.22046419e+00	-2.63472895e-02	-1.32278763e-02	-1.31194132e-02
0.0010968374    	-5.47433872e-05	1.14095116e+00	-2.06408594e-02	-1.03751731e-02	-1.02656863e-02
0.0013162511    	-5.52589180e-05	1.06097813e+00	-1.91393508e-02	-9.62493432e-03	-9.51441648e-03
0.0015795476    	-5.59244992e-05	9.79366900e-01	-2.49145974e-02	-1.25132232e-02	-1.24013742e-02
0.0018955034    	-5.68087972e-05	8.94840234e-01	-2.54403425e-02	-1.27769800e-02	-1.26633624e-02
0.002274636     	-5.79813558e-05	8.06522376e-01	-2.76556216e-02	-1.38857922e-02	-1.37698294e-02
0.002729595     	-5.93496775e-05	7.12281876e-01	-2.80657453e-02	-1.40922223e-02	-1.39735229e-02
0.0032755061    	-6.09293100e-05	6.21152608e-01	-2.76944479e-02	-1.39081533e-02	-1.37862946e-02
0.0039305566    	-6.24470222e-05	5.28624446e-01	-2.30581436e-02	-1.15915188e-02	-1.14666248e-02
0.0047165964    	-6.37767161e-05	4.37528580e-01	-1.72065734e-02	-8.66706343e-03	-8.53951000e-03
0.0056598146    	-6.47847156e-05	3.62606407e-01	-1.29619795e-02	-6.54577448e-03	-6.41620505e-03
0.0067915481    	-6.57643881e-05	2.97182014e-01	-1.18745266e-02	-6.00302770e-03	-5.87149892e-03
0.0081495053    	-6.71974092e-05	2.39731916e-01	-5.57655591e-03	-2.85547537e-03	-2.72108055e-03
0.0097786993    	-6.92606705e-05	1.94590953e-01	-9.68736600e-04	-5.53628971e-04	-4.15107630e-04
0.011733349     	-5.85127303e-05	1.60095157e-01	1.40397237e-02	6.96134914e-03	7.07837460e-03
0.014078562     	-5.79618383e-05	1.36366225e-01	4.05936471e-03	1.97172052e-03	2.08764419e-03
0.016720809     	-6.03948233e-05	1.07225091e-01	8.41607009e-03	4.14764022e-03	4.26842987e-03
0.019364459     	-6.20784767e-05	8.95836106e-02	7.55488090e-03	3.71536197e-03	3.83951892e-03
0.022009512     	-5.67953522e-05	8.12945060e-02	1.70354092e-02	8.46090925e-03	8.57449996e-03
0.024653161     	-5.87544906e-05	7.83357794e-02	9.08227416e-03	4.48238259e-03	4.59989157e-03
0.027295406     	-6.07249846e-05	8.60493987e-02	4.18850769e-03	2.03352886e-03	2.15497883e-03
0.029936247     	-6.30563849e-05	7.40323444e-02	4.76181280e-03	2.31785001e-03	2.44396278e-03
0.032575686     	-5.80818183e-05	6.53250642e-02	2.02453805e-02	1.00646084e-02	1.01807721e-02
0.035213724     	-6.10794235e-05	7.11874244e-02	8.18569584e-03	4.03176850e-03	4.15392734e-03
0.03785036      	-6.52531890e-05	7.16539862e-02	-2.85842957e-03	-1.49446797e-03	-1.36396159e-03
0.040486996     	-6.81969937e-05	6.83086915e-02	1.04120105e-03	4.52403531e-04	5.88797518e-04
0.043125035     	-6.43219400e-05	7.48084933e-02	6.96157796e-03	3.41646704e-03	3.54511092e-03
0.045764479     	-6.67068919e-05	7.11721838e-02	-1.46936640e-02	-7.41353888e-03	-7.28012510e-03
0.048405329     	-6.87192028e-05	7.49926300e-02	-8.18833054e-03	-4.16288447e-03	-4.02544607e-03
0.051049        	-7.13259752e-05	6.82451288e-02	-2.92234321e-03	-1.53249758e-03	-1.38984563e-03
0.053694083     	-6.58898123e-05	6.27101624e-02	-9.88646388e-04	-5.60213007e-04	-4.28433382e-04
0.05634768      	-6.68250849e-05	5.74550504e-02	5.25824921e-03	2.56229952e-03	2.69594969e-03
0.059005558     	-6.94969189e-05	6.48713974e-02	-5.51766095e-03	-2.82832740e-03	-2.68933356e-03
0.061663436     	-7.19662812e-05	6.94244511e-02	-1.85053686e-02	-9.32465058e-03	-9.18071802e-03
0.064325612     	-6.80956482e-05	6.31817993e-02	1.15460553e-02	5.70493202e-03	5.84112331e-03
0.066989224     	-6.86090002e-05	7.51226159e-02	5.10732207e-03	2.48505203e-03	2.62227003e-03
0.069654276     	-6.91703281e-05	7.94972077e-02	4.08008963e-03	1.97087449e-03	2.10921514e-03
0.072325103     	-7.06174640e-05	6.86080379e-02	-4.67912819e-03	-2.41018156e-03	-2.26894663e-03
0.074997378     	-6.53240948e-05	6.65640394e-02	3.08318848e-03	1.47627014e-03	1.60691833e-03
0.077672556     	-6.66603168e-05	6.67295898e-02	-1.74779720e-03	-9.40558918e-04	-8.07238285e-04
0.080347734     	-6.97560910e-05	7.29476051e-02	-1.34965500e-02	-6.81803110e-03	-6.67851892e-03
0.083024367     	-7.23372337e-05	6.74964650e-02	-6.32998141e-03	-3.23732794e-03	-3.09265347e-03
0.085699544     	-6.58112616e-05	7.02782098e-02	8.45243165e-03	4.16040456e-03	4.29202709e-03
0.088376178     	-6.40296821e-05	7.01351680e-02	3.11592949e-03	1.49393506e-03	1.62199443e-03
0.091051355     	-6.42185203e-05	6.65738321e-02	-2.05820674e-02	-1.03552522e-02	-1.02268152e-02
0.09372799      	-6.60322184e-05	7.26426033e-02	-3.90521490e-03	-2.01863967e-03	-1.88657523e-03
0.096403165     	-6.77192582e-05	7.68488723e-02	1.61923921e-03	7.41900349e-04	8.77338865e-04
0.099081263     	-6.30571426e-05	7.48250053e-02	1.23670447e-02	6.12046520e-03	6.24657949e-03
0.1017579       	-6.43097820e-05	9.09426776e-02	1.01642545e-02	5.01781749e-03	5.14643705e-03
0.104436        	-6.74748475e-05	6.22953299e-02	1.60802754e-02	7.97266284e-03	8.10761254e-03
0.10711263      	-7.09960309e-05	6.83428634e-02	9.70257439e-03	4.78029116e-03	4.92228322e-03
0.1097878       	-7.35194085e-05	6.96921182e-02	-2.78528899e-03	-1.46616391e-03	-1.31912509e-03
0.11246005      	-7.31707419e-05	9.44090329e-02	-1.58065527e-02	-7.97644708e-03	-7.83010559e-03
0.1151323       	-6.14966069e-05	6.29700067e-02	1.83528216e-02	9.11491420e-03	9.23790741e-03
0.11780454      	-5.93264325e-05	7.34725396e-02	2.88225670e-04	8.47864025e-05	2.03439267e-04
0.12048119      	-6.12996937e-05	6.33035312e-02	-1.38684248e-02	-6.99551209e-03	-6.87291270e-03
0.12315783      	-6.91619015e-05	6.66697322e-02	1.63108894e-02	8.08628281e-03	8.22460661e-03
0.12583741      	-7.30902717e-05	7.66071322e-02	1.90479121e-02	9.45086579e-03	9.59704633e-03
0.12851699      	-7.56978161e-05	5.89805297e-02	5.90229154e-03	2.87544795e-03	3.02684359e-03
0.13119953      	-6.71303358e-05	4.28960301e-02	2.87008418e-02	1.42832906e-02	1.44175512e-02
0.13388502      	-6.62912430e-05	7.17144252e-02	8.48301794e-03	4.17521773e-03	4.30780021e-03
0.13657497      	-6.77343640e-05	9.28218842e-02	-1.90399768e-02	-9.58772279e-03	-9.45225406e-03
0.13926641      	-6.72298444e-05	7.46266868e-02	1.18089553e-02	5.83724779e-03	5.97170748e-03
0.14195933      	-6.80134613e-05	7.15900344e-02	-1.24384025e-02	-6.28721473e-03	-6.15118781e-03
0.14465077      	-6.80681793e-05	7.10717369e-02	-4.60629082e-03	-2.37121359e-03	-2.23507723e-03
0.1473422       	-6.83092514e-05	7.10396362e-02	4.31147972e-03	2.08743061e-03	2.22404911e-03
0.15003513      	-6.13543016e-05	7.04236951e-02	1.45408000e-02	7.20904569e-03	7.33175430e-03
0.15273106      	-6.25684124e-05	7.00260727e-02	2.75904324e-03	1.31695321e-03	1.44209003e-03
0.15542548      	-6.65109458e-05	7.00069674e-02	1.74183978e-02	8.64268795e-03	8.77570984e-03
0.15812441      	-7.08159400e-05	6.81881712e-02	1.10898753e-02	5.47412173e-03	5.61575361e-03
0.16082333      	-7.31682806e-05	7.02491669e-02	9.75383509e-03	4.80374926e-03	4.95008582e-03
0.16351925      	-7.44665369e-05	7.94876373e-02	-2.59961413e-02	-1.30725372e-02	-1.29236041e-02
0.16621969      	-6.83225713e-05	6.15145781e-02	1.07810672e-02	5.32221102e-03	5.45885617e-03
0.16892164      	-6.93240859e-05	8.11150079e-02	1.30234099e-02	6.44238085e-03	6.58102902e-03
0.17162509      	-7.18442233e-05	8.29477818e-02	-4.03546869e-03	-2.08957857e-03	-1.94589012e-03
0.1743331       	-7.47155397e-05	7.54849966e-02	7.12637455e-03	3.48847174e-03	3.63790282e-03
0.17704111      	-7.82831672e-05	7.06609451e-02	-5.09149460e-03	-2.62403047e-03	-2.46746413e-03
0.17974607      	-8.06232037e-05	6.80850547e-02	-1.34697078e-02	-6.81547710e-03	-6.65423070e-03
0.18244801      	-7.39116186e-05	6.82706944e-02	1.24674037e-02	6.15979022e-03	6.30761345e-03
0.1851545       	-7.55933963e-05	8.30836243e-02	-2.86242908e-03	-1.50680793e-03	-1.35562114e-03
0.18786251      	-7.82611631e-05	8.21400961e-02	-6.28108129e-03	-3.21880181e-03	-3.06227948e-03
0.19057052      	-8.14130289e-05	7.95893288e-02	9.28462528e-03	4.56089961e-03	4.72372567e-03
0.19328006      	-8.33483149e-05	7.56891140e-02	1.98841299e-02	9.85871663e-03	1.00254133e-02
0.19599726      	-8.61128073e-05	8.17241580e-02	1.54549333e-02	7.64135384e-03	7.81357946e-03
0.19871599      	-8.02563975e-05	7.42496875e-02	1.83439384e-02	9.09171280e-03	9.25222560e-03
0.20143319      	-8.12940988e-05	9.80223523e-02	1.89682438e-02	9.40282780e-03	9.56541600e-03
0.20414731      	-8.33157674e-05	8.33262932e-02	-2.30202559e-03	-1.23432856e-03	-1.06769703e-03
0.2068599       	-8.47861340e-05	8.01409115e-02	-1.45774095e-02	-7.37349086e-03	-7.20391860e-03
0.20956941      	-8.45915733e-05	7.75650173e-02	-2.46853018e-03	-1.31885666e-03	-1.14967352e-03
0.21228047      	-8.52438996e-05	7.89924559e-02	1.81364451e-02	8.98297866e-03	9.15346646e-03
0.21499306      	-8.05384112e-05	8.17350477e-02	3.02955744e-02	1.50672488e-02	1.52283256e-02
0.21770718      	-8.30561973e-05	8.92069590e-02	1.44355837e-02	7.13473567e-03	7.30084806e-03
0.22042285      	-8.59909983e-05	9.00747394e-02	8.32710081e-03	4.07755941e-03	4.24954140e-03
0.22314007      	-8.92643160e-05	8.23708274e-02	3.98198244e-03	1.90172690e-03	2.08025553e-03
0.22585883      	-9.19259550e-05	8.44404754e-02	1.24915145e-02	6.15383129e-03	6.33768320e-03
0.22857758      	-9.34338967e-05	7.73579025e-02	1.43268127e-02	7.06997248e-03	7.25684027e-03
0.2312948       	-9.05964433e-05	7.54283068e-02	1.23970232e-02	6.10791516e-03	6.28910804e-03
0.23400891      	-8.02085127e-05	7.18989478e-02	5.56918183e-03	2.70438240e-03	2.86479943e-03
0.23671994      	-8.11077619e-05	8.24075624e-02	1.56747963e-02	7.75629041e-03	7.91850593e-03
0.23943097      	-8.54139017e-05	8.98105365e-02	3.62284192e-03	1.72600706e-03	1.89683486e-03
0.24214355      	-8.92336442e-05	1.03853877e-01	8.63771777e-03	4.22962524e-03	4.40809253e-03
0.24485922      	-9.24313557e-05	8.53614859e-02	7.25659440e-03	3.53586584e-03	3.72072856e-03
0.247578        	-9.53400251e-05	8.10713961e-02	3.96957568e-03	1.88944781e-03	2.08012786e-03
0.25029989      	-9.66089469e-05	7.84803131e-02	1.73334059e-03	7.70061348e-04	9.63279242e-04
0.25302334      	-8.71493231e-05	7.08249183e-02	3.28874483e-02	1.63565748e-02	1.65308735e-02
0.25574679      	-8.87230546e-05	8.40179441e-02	1.35006063e-02	6.66158012e-03	6.83902622e-03
0.25847024      	-9.15805127e-05	9.13906844e-02	7.05911661e-03	3.43797779e-03	3.62113882e-03
0.26119213      	-9.40070574e-05	8.14405089e-02	2.50893671e-03	1.16046130e-03	1.34847541e-03
0.26391246      	-9.46790075e-05	8.59059072e-02	6.94996564e-03	3.38030381e-03	3.56966183e-03
0.26663278      	-9.42019990e-05	9.07932439e-02	-1.70334506e-03	-9.45874528e-04	-7.57470530e-04
0.26935467      	-9.49911641e-05	8.94115191e-02	3.98509720e-03	1.89755744e-03	2.08753976e-03
0.2720797       	-8.86670416e-05	6.88265389e-02	3.52036298e-02	1.75131479e-02	1.76904819e-02
0.27480787      	-9.06064965e-05	8.67069062e-02	7.05446367e-03	3.43662534e-03	3.61783833e-03
0.2775392       	-9.37841949e-05	8.62406551e-02	8.91293401e-03	4.36268281e-03	4.55025120e-03
0.2802721       	-9.47810236e-05	8.14411220e-02	1.57746644e-02	7.79255116e-03	7.98211321e-03
0.28300501      	-9.53826706e-05	8.53960732e-02	1.57310880e-02	7.77016135e-03	7.96092669e-03
0.28573791      	-9.54910104e-05	8.42630451e-02	4.88132866e-04	1.48575422e-04	3.39557443e-04
0.28846924      	-9.54644717e-05	8.14467368e-02	-4.62380825e-03	-2.40736860e-03	-2.21643965e-03
0.29119898      	-8.89282142e-05	7.59396281e-02	7.96798122e-03	3.89506240e-03	4.07291883e-03
0.29392871      	-9.02970738e-05	9.02716748e-02	4.03121453e-03	1.92531019e-03	2.10590434e-03
0.29666004      	-9.54275139e-05	9.14736064e-02	1.41459907e-02	6.97756783e-03	7.16842286e-03
0.29938978      	-1.01219615e-04	8.65201058e-02	1.54181279e-02	7.60784434e-03	7.81028357e-03
0.30212587      	-1.05514603e-04	9.15877858e-02	2.14443529e-02	1.06166618e-02	1.08276911e-02
0.30486356      	-1.08012378e-04	9.24579703e-02	1.88906529e-02	9.33731409e-03	9.55333885e-03
0.30760125      	-1.04831198e-04	8.61244840e-02	4.50121113e-03	2.14577437e-03	2.35543676e-03
0.31033894      	-9.17900617e-05	8.90093226e-02	6.54887481e-03	3.18264734e-03	3.36622746e-03
0.31307344      	-9.03450268e-05	9.95176875e-02	-9.41217601e-03	-4.79643303e-03	-4.61574298e-03
0.31580634      	-9.27824499e-05	9.10181390e-02	6.88322871e-03	3.34883191e-03	3.53439681e-03
0.31854083      	-9.64393814e-05	9.35710621e-02	1.88432735e-03	8.45724293e-04	1.03860306e-03
0.32127853      	-1.02136375e-04	9.97686518e-02	-6.94014560e-03	-3.57220918e-03	-3.36793643e-03
0.32401783      	-1.06695188e-04	9.47910055e-02	7.65251845e-03	3.71956404e-03	3.93295441e-03
0.32676034      	-1.09558468e-04	9.89592512e-02	1.89455603e-02	9.36322168e-03	9.58233862e-03
0.32950446      	-1.08011500e-04	9.36763884e-02	8.47122968e-03	4.12760334e-03	4.34362634e-03
0.3322502       	-9.80591584e-05	9.41540860e-02	2.27570455e-02	1.12804636e-02	1.14765819e-02
0.33499755      	-9.73526648e-05	1.00760947e-01	4.50359837e-03	2.15444652e-03	2.34915185e-03
0.3377449       	-9.86054035e-05	9.34017618e-02	-1.18753167e-02	-6.03626376e-03	-5.83905295e-03
0.34049387      	-1.01182382e-04	9.21005244e-02	-1.08545360e-03	-6.43909182e-04	-4.41544418e-04
0.34324284      	-1.03936913e-04	9.14326679e-02	4.37868536e-03	2.08540577e-03	2.29327960e-03
0.34599181      	-1.05830054e-04	9.14317896e-02	1.41193624e-02	6.95385117e-03	7.16551127e-03
0.34874078      	-1.05240509e-04	9.37722706e-02	4.12628735e-03	1.95790317e-03	2.16838419e-03
0.35148975      	-1.02212051e-04	9.92128143e-02	-2.07269003e-03	-1.13855707e-03	-9.34132964e-04
0.35423873      	-9.26460898e-05	8.91992084e-02	2.06374666e-02	1.02260872e-02	1.04113794e-02
0.3569877       	-9.12709330e-05	9.87925830e-02	-5.84913553e-04	-3.83727710e-04	-2.01185844e-04
0.3597383       	-9.27457128e-05	1.02829231e-01	-8.97664658e-03	-4.58106900e-03	-4.39557758e-03
0.3624889       	-9.47362191e-05	9.71506990e-02	2.85353427e-03	1.33203092e-03	1.52150335e-03
0.36524113      	-9.70327826e-05	9.11217436e-02	2.36401880e-03	1.08497662e-03	1.27904218e-03
0.367995        	-9.59510622e-05	9.57422975e-02	7.49428616e-03	3.65119202e-03	3.84309414e-03
0.3707505       	-9.81210740e-05	9.65183424e-02	1.34640807e-02	6.63391929e-03	6.83016144e-03
0.37350601      	-9.95345915e-05	8.85300326e-02	8.74977670e-03	4.27535376e-03	4.47442294e-03
0.37626316      	-1.00170092e-04	1.02444380e-01	1.99163704e-02	9.85801509e-03	1.00583553e-02
0.37902195      	-9.99732751e-05	1.01118950e-01	4.55531647e-03	2.17768496e-03	2.37763151e-03
0.38178239      	-9.90255894e-05	1.07209075e-01	7.27176254e-03	3.53685568e-03	3.73490686e-03
0.38454283      	-9.70983025e-05	1.04542250e-01	3.20604762e-03	1.50592551e-03	1.70012211e-03
0.38730492      	-9.50539088e-05	1.00307142e-01	-7.63517933e-03	-3.91264358e-03	-3.72253576e-03
0.39006702      	-9.46704037e-05	1.02346610e-01	-6.75323736e-03	-3.47128908e-03	-3.28194828e-03
0.39282911      	-9.68041787e-05	1.04707240e-01	8.17262092e-03	3.98950628e-03	4.18311464e-03
0.39559286      	-9.90139196e-05	1.04145286e-01	7.62445216e-03	3.71321216e-03	3.91124000e-03
0.39835661      	-1.00819328e-04	1.07355960e-01	2.01677312e-02	9.98304625e-03	1.01846849e-02
0.40112202      	-1.03035704e-04	1.07617352e-01	2.62158423e-02	1.30048854e-02	1.32109568e-02
0.40388909      	-1.03800723e-04	1.06575989e-01	1.02298980e-02	5.01114827e-03	5.21874972e-03
0.40665783      	-1.03206875e-04	1.12399419e-01	3.63773675e-03	1.71566150e-03	1.92207525e-03
0.40942491      	-1.02527473e-04	1.11370958e-01	2.65782922e-03	1.22638714e-03	1.43144208e-03
0.41219365      	-1.01876850e-04	1.10405980e-01	-4.60817296e-03	-2.40596333e-03	-2.20220963e-03
0.41496407      	-1.00167183e-04	1.12632889e-01	2.53244395e-03	1.16605479e-03	1.36638916e-03
0.41773114      	-1.01330363e-04	1.06014143e-01	1.15977677e-02	5.69755348e-03	5.90021420e-03
0.42050155      	-1.03743226e-04	1.13192198e-01	6.42568639e-03	3.10909997e-03	3.31658642e-03
0.42327701      	-1.07296440e-04	1.15925265e-01	8.29942044e-03	4.04241378e-03	4.25700666e-03
0.42605414      	-1.05593775e-04	1.21205043e-01	3.40060696e-02	1.68974410e-02	1.71086286e-02
0.4288212       	-1.08226697e-04	1.20258772e-01	1.98557283e-02	9.81963743e-03	1.00360908e-02
0.43159329      	-1.10451567e-04	1.21630392e-01	8.08970566e-03	3.93440126e-03	4.15530440e-03
0.43437213      	-1.10648956e-04	1.17569719e-01	1.04684776e-02	5.12358983e-03	5.34488774e-03
0.43715096      	-1.10740382e-04	1.19575216e-01	1.38908502e-02	6.83468471e-03	7.05616548e-03
0.4399298       	-1.11207613e-04	1.17972349e-01	2.79580619e-03	1.28669548e-03	1.50911071e-03
0.44270864      	-1.12086737e-04	1.22786095e-01	4.48932371e-03	2.13257512e-03	2.35674859e-03
0.44548917      	-1.12090229e-04	1.20984107e-01	3.38110874e-03	1.57846414e-03	1.80264460e-03
0.4482697       	-1.14185536e-04	1.20487110e-01	9.13185743e-03	4.45174318e-03	4.68011425e-03
0.45105023      	-1.16682894e-04	1.22302555e-01	8.43118592e-03	4.09891006e-03	4.33227585e-03
0.45382907      	-1.18995575e-04	1.22829878e-01	1.77904017e-02	8.77620528e-03	9.01419643e-03
0.4566079       	-1.20293364e-04	1.31784915e-01	2.99202737e-02	1.48398435e-02	1.50804302e-02
0.45938673      	-1.20594896e-04	1.26448945e-01	1.75202783e-02	8.63954424e-03	8.88073403e-03
0.46216386      	-1.19593608e-04	1.29307290e-01	1.04208890e-02	5.09085089e-03	5.33003810e-03
0.464941        	-1.18404299e-04	1.29396749e-01	1.28781725e-02	6.32068196e-03	6.55749056e-03
0.46771813      	-1.17130134e-04	1.28722559e-01	4.76935306e-03	2.26754640e-03	2.50180666e-03
0.47049527      	-1.16769514e-04	1.30054367e-01	9.19785704e-03	4.48215901e-03	4.71569803e-03
0.4732724       	-1.18890229e-04	1.29231720e-01	2.04259662e-02	1.00940928e-02	1.03318733e-02
0.47605124      	-1.21125728e-04	1.24514839e-01	2.27637007e-02	1.12607246e-02	1.15029761e-02
0.47883008      	-1.22502636e-04	1.29545274e-01	1.11734105e-02	5.46420264e-03	5.70920791e-03
0.48161062      	-1.23339408e-04	1.30518530e-01	2.02997741e-02	1.00265476e-02	1.02732265e-02
0.48438946      	-1.22969145e-04	1.33622090e-01	1.74818385e-02	8.61795011e-03	8.86388841e-03
0.48716147      	-1.23297297e-04	1.29713423e-01	1.47249530e-02	7.23917923e-03	7.48577382e-03
0.48993009      	-1.22899123e-04	1.33099772e-01	1.80582854e-02	8.90624356e-03	9.15204181e-03
0.492697        	-1.22628064e-04	1.31205824e-01	1.33265668e-02	6.54065532e-03	6.78591145e-03
0.49546222      	-1.23383000e-04	1.32980520e-01	1.56470642e-02	7.70014910e-03	7.94691510e-03
0.49822574      	-1.25112212e-04	1.36176961e-01	1.76973871e-02	8.72358134e-03	8.97380577e-03
0.50098926      	-1.26425724e-04	1.40556029e-01	1.54938956e-02	7.62052206e-03	7.87337351e-03
0.50375108      	-1.27884910e-04	1.30161229e-01	2.44825634e-02	1.21133968e-02	1.23691666e-02
0.5065129       	-1.29821626e-04	1.40523442e-01	1.92475564e-02	9.49395658e-03	9.75359983e-03
0.50927473      	-1.29931365e-04	1.40341224e-01	1.23730225e-02	6.05657987e-03	6.31644260e-03
0.51203655      	-1.30655324e-04	1.41705266e-01	1.64575232e-02	8.09810628e-03	8.35941693e-03
0.51479838      	-1.31028415e-04	1.40645787e-01	9.66586113e-03	4.70190215e-03	4.96395898e-03
0.5175585       	-1.31239863e-04	1.41608311e-01	1.78446839e-02	8.79110206e-03	9.05358179e-03
0.52031862      	-1.31670554e-04	1.42294675e-01	1.55491053e-02	7.64288208e-03	7.90622319e-03
0.52307875      	-1.33692535e-04	1.40460776e-01	2.57635308e-02	1.27480729e-02	1.30154579e-02
0.52583887      	-1.35913939e-04	1.44318822e-01	1.79149972e-02	8.82158464e-03	9.09341252e-03
0.52859729      	-1.37158824e-04	1.45450297e-01	1.46403553e-02	7.18301881e-03	7.45733645e-03
0.53135402      	-1.37671913e-04	1.45466895e-01	1.82162251e-02	8.97044065e-03	9.24578447e-03
0.53411074      	-1.37700942e-04	1.48539082e-01	1.94080466e-02	9.56632236e-03	9.84172424e-03
0.53686746      	-1.38088746e-04	1.47108756e-01	1.98446996e-02	9.78426105e-03	1.00604385e-02
0.53962418      	-1.37898905e-04	1.49315940e-01	1.87030381e-02	9.21362017e-03	9.48941798e-03
0.5423809       	-1.36980390e-04	1.43385599e-01	1.18632296e-02	5.79463439e-03	6.06859517e-03
0.54513763      	-1.36510140e-04	1.49609450e-01	6.72388330e-03	3.22543151e-03	3.49845179e-03
0.54789605      	-1.37190126e-04	1.52084843e-01	8.48208317e-03	4.10385146e-03	4.37823171e-03
0.55065448      	-1.38510431e-04	1.49185532e-01	8.62070755e-03	4.17184334e-03	4.44886421e-03
0.55341291      	-1.40595711e-04	1.53584762e-01	1.90725680e-02	9.39568830e-03	9.67687973e-03
0.55617305      	-1.42105645e-04	1.52870913e-01	2.02800051e-02	9.99789689e-03	1.02821082e-02
0.55893319      	-1.42567389e-04	1.53263411e-01	2.26884938e-02	1.12016795e-02	1.14868143e-02
0.56169505      	-1.42463119e-04	1.55217407e-01	1.47663981e-02	7.24073591e-03	7.52566215e-03
0.56445863      	-1.41827757e-04	1.55452383e-01	1.71330407e-02	8.42469258e-03	8.70834809e-03
0.56722393      	-1.41000620e-04	1.55820216e-01	4.15460677e-03	1.93630276e-03	2.21830400e-03
0.56998923      	-1.40056938e-04	1.60250154e-01	-1.59177757e-03	-9.35945724e-04	-6.55831848e-04
0.57275626      	-1.40743781e-04	1.51165781e-01	1.52232639e-02	7.47088818e-03	7.75237574e-03
0.57552501      	-1.43031126e-04	1.56302255e-01	1.25256291e-02	6.11978344e-03	6.40584570e-03
0.5782955       	-1.45854239e-04	1.54422960e-01	1.61626255e-02	7.93545853e-03	8.22716701e-03
0.58106773      	-1.47960390e-04	1.57173399e-01	2.46339557e-02	1.21690175e-02	1.24649383e-02
0.5838417       	-1.49196544e-04	1.58370308e-01	1.78788620e-02	8.79023447e-03	9.08862756e-03
0.58661741      	-1.49936939e-04	1.58427680e-01	2.00676820e-02	9.88390404e-03	1.01837779e-02
0.58939487      	-1.50459171e-04	1.57772730e-01	1.29379110e-02	6.31849633e-03	6.61941467e-03
0.59217408      	-1.50382216e-04	1.58265475e-01	9.14023199e-03	4.41973378e-03	4.72049821e-03
0.59495505      	-1.50268459e-04	1.57874154e-01	1.41110338e-02	6.90524842e-03	7.20578534e-03
0.59773776      	-1.51063761e-04	1.58745992e-01	1.04878790e-02	5.09287573e-03	5.39500325e-03
0.60052224      	-1.52212777e-04	1.64702401e-01	1.85838444e-02	9.13970944e-03	9.44413499e-03
0.60330672      	-1.53722056e-04	1.56586381e-01	2.48352099e-02	1.22638829e-02	1.25713270e-02
0.60609297      	-1.55532980e-04	1.62405059e-01	1.75911138e-02	8.64002394e-03	8.95108990e-03
0.60887921      	-1.56561564e-04	1.63689977e-01	1.73535632e-02	8.52022002e-03	8.83334314e-03
0.61166546      	-1.58220549e-04	1.69626843e-01	1.53386626e-02	7.51111075e-03	7.82755185e-03
0.61445347      	-1.59279615e-04	1.66250033e-01	1.48986090e-02	7.29002489e-03	7.60858412e-03
0.61724149      	-1.59209171e-04	1.66851535e-01	1.46058814e-02	7.14373151e-03	7.46214985e-03
0.6200295       	-1.59940408e-04	1.65946202e-01	1.23789792e-02	6.02954921e-03	6.34943003e-03
0.62281751      	-1.60534815e-04	1.65119044e-01	1.27051100e-02	6.19202017e-03	6.51308980e-03
0.62560375      	-1.60856305e-04	1.64672730e-01	1.56395009e-02	7.65889412e-03	7.98060674e-03
0.62838999      	-1.61031352e-04	1.65082859e-01	2.42448044e-02	1.19613708e-02	1.22834335e-02
0.63117623      	-1.61153999e-04	1.71811272e-01	1.25453772e-02	6.11153458e-03	6.43384258e-03
0.63396247      	-1.61839759e-04	1.71374042e-01	1.20883143e-02	5.88231740e-03	6.20599692e-03
0.63674694      	-1.63030418e-04	1.71100690e-01	2.09708517e-02	1.03223955e-02	1.06484563e-02
0.6395314       	-1.64826768e-04	1.72471833e-01	2.15451616e-02	1.06077540e-02	1.09374075e-02
0.64231408      	-1.65820671e-04	1.73435310e-01	1.85282634e-02	9.09831104e-03	9.42995239e-03
0.64509677      	-1.66816021e-04	1.72623941e-01	1.84499821e-02	9.05817502e-03	9.39180706e-03
0.64787946      	-1.67506627e-04	1.72532340e-01	1.87645724e-02	9.21477957e-03	9.54979283e-03
0.65066214      	-1.67542513e-04	1.70865583e-01	1.26922674e-02	6.17859118e-03	6.51367621e-03
0.65344305      	-1.67880957e-04	1.74883125e-01	1.19187382e-02	5.79148815e-03	6.12725007e-03
0.65622395      	-1.68084943e-04	1.74498876e-01	1.84775211e-02	9.07067562e-03	9.40684551e-03
0.65900486      	-1.68317415e-04	1.75771780e-01	1.71921720e-02	8.42776856e-03	8.76440339e-03
0.66178755      	-1.68716001e-04	1.76891418e-01	1.38445039e-02	6.75353593e-03	7.09096793e-03
0.66457024      	-1.69104111e-04	1.80537161e-01	1.62665186e-02	7.96415520e-03	8.30236342e-03
0.66735293      	-1.70110366e-04	1.78884529e-01	2.19090874e-02	1.07844333e-02	1.11246541e-02
0.67013741      	-1.72568201e-04	1.80100832e-01	2.15992799e-02	1.06270718e-02	1.09722082e-02
0.67292188      	-1.74849360e-04	1.79122563e-01	2.90320534e-02	1.43411773e-02	1.46908761e-02
0.67570815      	-1.75412868e-04	1.79471781e-01	2.23899868e-02	1.10195805e-02	1.13704063e-02
0.67849442      	-1.76193261e-04	1.81850574e-01	2.36160831e-02	1.16318483e-02	1.19842348e-02
0.68128249      	-1.76468956e-04	1.81098164e-01	1.92378611e-02	9.44246161e-03	9.79539952e-03
0.68407236      	-1.76716826e-04	1.81683240e-01	2.50884679e-02	1.23675171e-02	1.27209508e-02
0.68686404      	-1.76432949e-04	1.83601034e-01	1.75049424e-02	8.57603825e-03	8.92890415e-03
0.68965752      	-1.77594880e-04	1.85602900e-01	2.77541235e-02	1.36994669e-02	1.40546566e-02
0.69245281      	-1.79142259e-04	1.83436589e-01	2.52984318e-02	1.24700737e-02	1.28283582e-02
0.69524992      	-1.80356502e-04	1.86930566e-01	3.12481404e-02	1.54437137e-02	1.58044267e-02
0.69804885      	-1.81892575e-04	1.86599948e-01	3.23647137e-02	1.60004643e-02	1.63642494e-02
0.70084595      	-1.83176968e-04	1.87087387e-01	2.97214065e-02	1.46775263e-02	1.50438802e-02
0.70364306      	-1.83915239e-04	1.86849046e-01	2.61761054e-02	1.29041375e-02	1.32719679e-02
0.70643835      	-1.84958554e-04	1.85996296e-01	3.14919126e-02	1.55609978e-02	1.59309149e-02
0.70923364      	-1.85550776e-04	1.89428870e-01	2.96224921e-02	1.46256953e-02	1.49967968e-02